# Time Global
# Global+Deaths|Ave
# Global+Deaths|Std
# Time	Ave	Std	
365	2.7	0	
730	7.05	0	
1095	7.13	0	
1460	6.91	0	
1825	7.29	0	
2190	8.26	0	
2555	8.22	0	
2920	7.83	0	
3285	8.78	0	
3650	9.77	0	
4015	10.02	0	
4380	10.41	0	
