# Time Global
# Global+Cause_HCV__HCV_HCC_State|Ave
# Global+Cause_HCV__HCV_HCC_State|Std
# Time	Ave	Std	
365	0.09	0	
730	0.06	0	
1095	0.07	0	
1460	0.06	0	
1825	0.08	0	
2190	0.04	0	
2555	0.07	0	
2920	0.02	0	
3285	0.04	0	
3650	0.06	0	
4015	0.06	0	
4380	0.02	0	
