# Time Global
# Global+Incidence_HIV__HIV_Uninfected_State|Ave
# Global+Incidence_HIV__HIV_Uninfected_State|Std
# Time	Ave	Std	
365	0.000	0.000	
730	0.000	0.000	
1095	0.000	0.000	
1460	0.000	0.000	
1825	0.000	0.000	
2190	0.000	0.000	
2555	0.000	0.000	
2920	0.000	0.000	
3285	0.000	0.000	
3650	0.000	0.000	
4015	0.000	0.000	
4380	0.000	0.000	
