# Time Node
# Undifferentiated+Random_0to1|Ave
# Undifferentiated+Random_0to1|Std
# Time	Ave	Std	
365	0.499	0.286	
730	0.503	0.291	
1095	0.499	0.289	
1460	0.503	0.289	
1825	0.499	0.289	
2190	0.499	0.288	
2555	0.495	0.29	
2920	0.497	0.288	
3285	0.501	0.289	
3650	0.498	0.29	
4015	0.502	0.289	
4380	0.501	0.285	
