# Time Place
# Place+Population=default_place
# Time	default_place	
365	1	
730	1	
1095	1	
1460	1	
1825	1	
2190	1	
2555	1	
2920	1	
3285	1	
3650	1	
4015	1	
4380	1	
