# Time Global
# Global+Instigator_Aging|Ave
# Global+Instigator_Aging|Std
# Time	Ave	Std	
365	1.66	0	
730	6.09	0	
1095	6.23	0	
1460	6.16	0	
1825	6.49	0	
2190	7.43	0	
2555	7.32	0	
2920	7.35	0	
3285	8.08	0	
3650	9.13	0	
4015	9.23	0	
4380	9.88	0	
