# Time Global
# Global+Cause_HCV__HCV_Decomp_State|Ave
# Global+Cause_HCV__HCV_Decomp_State|Std
# Time	Ave	Std	
365	0.1	0	
730	0.14	0	
1095	0.05	0	
1460	0.08	0	
1825	0.09	0	
2190	0.08	0	
2555	0.11	0	
2920	0.07	0	
3285	0.08	0	
3650	0.08	0	
4015	0.14	0	
4380	0.04	0	
