# Time Global
# Global+Incidence_HCV__HCV_HCC_State|Ave
# Global+Incidence_HCV__HCV_HCC_State|Std
# Time	Ave	Std	
365	0.06	0	
730	0.06	0	
1095	0.02	0	
1460	0.06	0	
1825	0.02	0	
2190	0.02	0	
2555	0.05	0	
2920	0.06	0	
3285	0.05	0	
3650	0.01	0	
4015	0.03	0	
4380	0.04	0	
