# Time Churn
# Churn:drug_co_use+Degree|Ave
# Churn:drug_co_use+Degree|Std
# Time	Ave	Std	
365	0.361	0.546	
730	0.347	0.54	
1095	0.341	0.538	
1460	0.344	0.539	
1825	0.332	0.526	
2190	0.334	0.529	
2555	0.334	0.534	
2920	0.328	0.535	
3285	0.33	0.539	
3650	0.326	0.529	
4015	0.317	0.523	
4380	0.317	0.524	
