# Time Global
# Global+Cause_Aging__AliveState_NaturalDeath|Ave
# Global+Cause_Aging__AliveState_NaturalDeath|Std
# Time	Ave	Std	
365	0.57	0	
730	0.59	0	
1095	0.79	0	
1460	0.63	0	
1825	0.71	0	
2190	0.98	0	
2555	0.82	0	
2920	0.96	0	
3285	1.06	0	
3650	1.39	0	
4015	1.44	0	
4380	1.58	0	
