# Time Node
# Undifferentiated+IDParity=Even
# Undifferentiated+IDParity=Odd
# Time	Even	Odd	
365	0.5	0.5	
730	0.499	0.501	
1095	0.498	0.502	
1460	0.497	0.503	
1825	0.497	0.503	
2190	0.5	0.5	
2555	0.501	0.499	
2920	0.503	0.497	
3285	0.505	0.495	
3650	0.507	0.493	
4015	0.507	0.493	
4380	0.506	0.494	
