# Time Risk
# Risk:drug_co_use+Acts|Ave
# Risk:drug_co_use+Acts|Std
# Time	Ave	Std	
365	0	0	
730	0	0	
1095	0	0	
1460	0	0	
1825	0	0	
2190	0	0	
2555	0	0	
2920	0	0	
3285	0	0	
3650	0	0	
4015	0	0	
4380	0	0	
