# Time Global
# Global+Instigator_HCV|Ave
# Global+Instigator_HCV|Std
# Time	Ave	Std	
365	0.43	0	
730	0.39	0	
1095	0.3	0	
1460	0.23	0	
1825	0.37	0	
2190	0.28	0	
2555	0.3	0	
2920	0.19	0	
3285	0.28	0	
3650	0.28	0	
4015	0.32	0	
4380	0.22	0	
