# Time Global
# Global+Incidence_HCV__HCV_Stage3_Fibro_State|Ave
# Global+Incidence_HCV__HCV_Stage3_Fibro_State|Std
# Time	Ave	Std	
365	0.19	0	
730	0.2	0	
1095	0.17	0	
1460	0.28	0	
1825	0.27	0	
2190	0.34	0	
2555	0.19	0	
2920	0.35	0	
3285	0.46	0	
3650	0.59	0	
4015	0.59	0	
4380	0.75	0	
