# Time Global
# Global+Incidence_HCV__HCV_Stage2_Fibro_State|Ave
# Global+Incidence_HCV__HCV_Stage2_Fibro_State|Std
# Time	Ave	Std	
365	0.58	0	
730	0.52	0	
1095	0.53	0	
1460	0.62	0	
1825	0.57	0	
2190	0.86	0	
2555	1.05	0	
2920	1.01	0	
3285	2.02	0	
3650	2.96	0	
4015	2.83	0	
4380	3.21	0	
