# Time Churn
# Churn:drug_co_use+Deviation|Ave
# Churn:drug_co_use+Deviation|Std
# Time	Ave	Std	
365	-1.139	0.606	
730	-1.153	0.603	
1095	-1.161	0.606	
1460	-1.158	0.614	
1825	-1.172	0.605	
2190	-1.167	0.606	
2555	-1.166	0.61	
2920	-1.171	0.609	
3285	-1.172	0.611	
3650	-1.173	0.605	
4015	-1.179	0.606	
4380	-1.178	0.604	
