# Time Global
# Global+Cause_HCV__HCV_Cirrhosis_State|Ave
# Global+Cause_HCV__HCV_Cirrhosis_State|Std
# Time	Ave	Std	
365	0.24	0	
730	0.18	0	
1095	0.18	0	
1460	0.08	0	
1825	0.2	0	
2190	0.16	0	
2555	0.12	0	
2920	0.1	0	
3285	0.13	0	
3650	0.13	0	
4015	0.12	0	
4380	0.14	0	
