# Time Global
# Global+Cause_Aging__AliveState_DepartureFromNetwork|Ave
# Global+Cause_Aging__AliveState_DepartureFromNetwork|Std
# Time	Ave	Std	
365	1.09	0	
730	5.5	0	
1095	5.44	0	
1460	5.53	0	
1825	5.78	0	
2190	6.45	0	
2555	6.5	0	
2920	6.39	0	
3285	7.02	0	
3650	7.74	0	
4015	7.79	0	
4380	8.3	0	
