# Time Node
# Undifferentiated+IDValue|Ave
# Undifferentiated+IDValue|Std
# Time	Ave	Std	
365	5079.506	2934.526	
730	5467.61	3150.825	
1095	5870.893	3379.32	
1460	6319.977	3618.437	
1825	6809.631	3855.344	
2190	7370.888	4118.471	
2555	7980.184	4384.724	
2920	8586.258	4619.594	
3285	9286.464	4888.915	
3650	10108.169	5136.814	
4015	10999.768	5371.422	
4380	11982.271	5583.652	
