# Time Global
# Global+Incidence_HCV__HCV_Cirrhosis_State|Ave
# Global+Incidence_HCV__HCV_Cirrhosis_State|Std
# Time	Ave	Std	
365	0.22	0	
730	0.22	0	
1095	0.21	0	
1460	0.23	0	
1825	0.21	0	
2190	0.19	0	
2555	0.17	0	
2920	0.18	0	
3285	0.14	0	
3650	0.21	0	
4015	0.15	0	
4380	0.3	0	
