# Time Global
# Global+Incidence_HCV__HCV_Stage1_Fibro_State|Ave
# Global+Incidence_HCV__HCV_Stage1_Fibro_State|Std
# Time	Ave	Std	
365	3.77	0	
730	3.37	0	
1095	3.87	0	
1460	3.46	0	
1825	3.27	0	
2190	3.39	0	
2555	3.44	0	
2920	3.07	0	
3285	2.28	0	
3650	4.59	0	
4015	0.84	0	
4380	0.78	0	
