# Time Global
# Global+Cause_HIV__HIV_Chronic_State|Ave
# Global+Cause_HIV__HIV_Chronic_State|Std
# Time	Ave	Std	
365	0.61	0	
730	0.57	0	
1095	0.6	0	
1460	0.52	0	
1825	0.43	0	
2190	0.55	0	
2555	0.6	0	
2920	0.29	0	
3285	0.42	0	
3650	0.36	0	
4015	0.47	0	
4380	0.31	0	
