# Time Churn
# Churn:drug_co_use+AbsDeviation|Ave
# Churn:drug_co_use+AbsDeviation|Std
# Time	Ave	Std	
365	1.158	0.569	
730	1.169	0.572	
1095	1.181	0.567	
1460	1.181	0.569	
1825	1.189	0.569	
2190	1.183	0.573	
2555	1.186	0.57	
2920	1.192	0.566	
3285	1.195	0.565	
3650	1.192	0.566	
4015	1.198	0.567	
4380	1.198	0.565	
