# Time Global
# Global+Instigator_Aging|Ave
# Global+Instigator_Aging|Std
# Time	Ave	Std	
365	1.5	0	
730	6.1	0	
1095	6.7	0	
1460	5.8	0	
1825	9.3	0	
2190	7.7	0	
2555	7.8	0	
2920	7.1	0	
3285	9.1	0	
3650	10.5	0	
4015	9.5	0	
4380	8.5	0	
4745	11.9	0	
5110	9.9	0	
5475	8.3	0	
5840	10.5	0	
6205	11.6	0	
6570	10.1	0	
6935	10.8	0	
7300	12.7	0	
