# Time Churn
# Churn:drug_co_use+AbsDeviation|Ave
# Churn:drug_co_use+AbsDeviation|Std
# Time	Ave	Std	
365	1.148	0.595	
730	1.162	0.573	
1095	1.168	0.591	
1460	1.189	0.596	
1825	1.186	0.589	
2190	1.168	0.572	
2555	1.185	0.571	
2920	1.178	0.572	
3285	1.191	0.558	
3650	1.212	0.559	
4015	1.212	0.577	
4380	1.225	0.56	
4745	1.231	0.574	
5110	1.212	0.575	
5475	1.201	0.576	
5840	1.198	0.574	
6205	1.207	0.575	
6570	1.208	0.577	
6935	1.213	0.578	
7300	1.214	0.575	
