# Time Node
# Undifferentiated+IDParity=Even
# Undifferentiated+IDParity=Odd
# Time	Even	Odd	
365	0.502	0.498	
730	0.499	0.501	
1095	0.502	0.498	
1460	0.501	0.499	
1825	0.5	0.5	
2190	0.503	0.497	
2555	0.498	0.502	
2920	0.489	0.511	
3285	0.496	0.504	
3650	0.497	0.503	
4015	0.497	0.503	
4380	0.497	0.503	
4745	0.494	0.506	
5110	0.495	0.505	
5475	0.494	0.506	
5840	0.497	0.503	
6205	0.488	0.512	
6570	0.495	0.505	
6935	0.502	0.498	
7300	0.502	0.498	
