# Time Node
# Undifferentiated+Random_0to1|Ave
# Undifferentiated+Random_0to1|Std
# Time	Ave	Std	
365	0.519	0.292	
730	0.509	0.29	
1095	0.48	0.288	
1460	0.504	0.29	
1825	0.499	0.291	
2190	0.501	0.293	
2555	0.501	0.292	
2920	0.507	0.282	
3285	0.491	0.282	
3650	0.512	0.29	
4015	0.508	0.292	
4380	0.493	0.289	
4745	0.491	0.297	
5110	0.494	0.289	
5475	0.508	0.298	
5840	0.507	0.291	
6205	0.484	0.288	
6570	0.504	0.293	
6935	0.502	0.29	
7300	0.493	0.296	
