# Time Global
# Global+Cause_HCV__HCV_Cirrhosis_State|Ave
# Global+Cause_HCV__HCV_Cirrhosis_State|Std
# Time	Ave	Std	
365	0.4	0	
730	0.2	0	
1095	0.000	0.000	
1460	0.3	0	
1825	0.000	0.000	
2190	0.2	0	
2555	0.000	0.000	
2920	0.3	0	
3285	0.000	0.000	
3650	0.000	0.000	
4015	0.000	0.000	
4380	0.000	0.000	
4745	0.3	0	
5110	0.4	0	
5475	0.2	0	
5840	0.2	0	
6205	0.000	0.000	
6570	0.1	0	
6935	0.000	0.000	
7300	0.3	0	
