# Time Global
# Global+Deaths|Ave
# Global+Deaths|Std
# Time	Ave	Std	
365	2.4	0	
730	6.6	0	
1095	7.3	0	
1460	6.5	0	
1825	10.3	0	
2190	9.1	0	
2555	8.6	0	
2920	8.5	0	
3285	9.9	0	
3650	11	0	
4015	9.8	0	
4380	9.1	0	
4745	12.5	0	
5110	10.7	0	
5475	9.3	0	
5840	10.9	0	
6205	11.7	0	
6570	10.5	0	
6935	11.2	0	
7300	13.3	0	
