# Time Global
# Global+Cause_Aging__AliveState_NaturalDeath|Ave
# Global+Cause_Aging__AliveState_NaturalDeath|Std
# Time	Ave	Std	
365	0.6	0	
730	0.6	0	
1095	0.6	0	
1460	0.6	0	
1825	1.4	0	
2190	0.6	0	
2555	0.7	0	
2920	0.9	0	
3285	1.8	0	
3650	1.4	0	
4015	1.9	0	
4380	1.1	0	
4745	1.6	0	
5110	1.4	0	
5475	1.7	0	
5840	1.4	0	
6205	1.1	0	
6570	1.1	0	
6935	1	0	
7300	1	0	
