# Time Churn
# Churn:drug_co_use+Degree|Ave
# Churn:drug_co_use+Degree|Std
# Time	Ave	Std	
365	0.411	0.584	
730	0.392	0.582	
1095	0.373	0.559	
1460	0.368	0.562	
1825	0.369	0.551	
2190	0.367	0.563	
2555	0.36	0.561	
2920	0.371	0.573	
3285	0.355	0.544	
3650	0.343	0.537	
4015	0.354	0.571	
4380	0.335	0.554	
4745	0.324	0.553	
5110	0.334	0.552	
5475	0.349	0.555	
5840	0.356	0.574	
6205	0.347	0.577	
6570	0.335	0.536	
6935	0.319	0.527	
7300	0.316	0.524	
