# Time Global
# Global+Cause_Aging__AliveState_DepartureFromNetwork|Ave
# Global+Cause_Aging__AliveState_DepartureFromNetwork|Std
# Time	Ave	Std	
365	0.9	0	
730	5.5	0	
1095	6.1	0	
1460	5.2	0	
1825	7.9	0	
2190	7.1	0	
2555	7.1	0	
2920	6.2	0	
3285	7.3	0	
3650	9.1	0	
4015	7.6	0	
4380	7.4	0	
4745	10.3	0	
5110	8.5	0	
5475	6.6	0	
5840	9.1	0	
6205	10.5	0	
6570	9	0	
6935	9.8	0	
7300	11.7	0	
