# Time Risk
# Risk:drug_co_use+Acts|Ave
# Risk:drug_co_use+Acts|Std
# Time	Ave	Std	
365	0	0	
730	0	0	
1095	0	0	
1460	0	0	
1825	0	0	
2190	0	0	
2555	0	0	
2920	0	0	
3285	0	0	
3650	0	0	
4015	0	0	
4380	0	0	
4745	0	0	
5110	0	0	
5475	0	0	
5840	0	0	
6205	0	0	
6570	0	0	
6935	0	0	
7300	0	0	
