# Time Global
# Global+Incidence_HCV__HCV_HCC_State|Ave
# Global+Incidence_HCV__HCV_HCC_State|Std
# Time	Ave	Std	
365	0.2	0	
730	0.1	0	
1095	0.000	0.000	
1460	0.000	0.000	
1825	0.1	0	
2190	0.1	0	
2555	0.000	0.000	
2920	0.000	0.000	
3285	0.000	0.000	
3650	0.000	0.000	
4015	0.000	0.000	
4380	0.000	0.000	
4745	0.1	0	
5110	0.000	0.000	
5475	0.000	0.000	
5840	0.000	0.000	
6205	0.000	0.000	
6570	0.000	0.000	
6935	0.000	0.000	
7300	0.000	0.000	
