# Time Global
# Global+Incidence_HCV__HCV_Stage3_Fibro_State|Ave
# Global+Incidence_HCV__HCV_Stage3_Fibro_State|Std
# Time	Ave	Std	
365	0.3	0	
730	0.1	0	
1095	0.2	0	
1460	0.3	0	
1825	0.2	0	
2190	0.3	0	
2555	0.5	0	
2920	0.2	0	
3285	0.7	0	
3650	0.3	0	
4015	0.5	0	
4380	0.3	0	
4745	0.6	0	
5110	1	0	
5475	1.8	0	
5840	2.2	0	
6205	2.9	0	
6570	2.5	0	
6935	3.5	0	
7300	2	0	
