# Time Global
# Global+Instigator_HCV|Ave
# Global+Instigator_HCV|Std
# Time	Ave	Std	
365	0.5	0	
730	0.2	0	
1095	0.2	0	
1460	0.3	0	
1825	0.000	0.000	
2190	0.5	0	
2555	0.3	0	
2920	0.8	0	
3285	0.000	0.000	
3650	0.000	0.000	
4015	0.000	0.000	
4380	0.2	0	
4745	0.3	0	
5110	0.4	0	
5475	0.4	0	
5840	0.2	0	
6205	0.000	0.000	
6570	0.2	0	
6935	0.000	0.000	
7300	0.3	0	
