# Time Global
# Global+Incidence_HCV__HCV_Stage2_Fibro_State|Ave
# Global+Incidence_HCV__HCV_Stage2_Fibro_State|Std
# Time	Ave	Std	
365	0.8	0	
730	0.3	0	
1095	0.4	0	
1460	0.4	0	
1825	0.5	0	
2190	0.7	0	
2555	1.3	0	
2920	1.9	0	
3285	2.2	0	
3650	3.7	0	
4015	3.6	0	
4380	3	0	
4745	3.1	0	
5110	3	0	
5475	2.7	0	
5840	3.2	0	
6205	3.9	0	
6570	1.5	0	
6935	2.2	0	
7300	2.4	0	
