# Time Global
# Global+Incidence_HCV__HCV_Stage1_Fibro_State|Ave
# Global+Incidence_HCV__HCV_Stage1_Fibro_State|Std
# Time	Ave	Std	
365	4	0	
730	3.9	0	
1095	3.2	0	
1460	3.4	0	
1825	3.1	0	
2190	2.6	0	
2555	2.6	0	
2920	3.8	0	
3285	2.5	0	
3650	3.7	0	
4015	0.9	0	
4380	0.9	0	
4745	0.7	0	
5110	0.6	0	
5475	0.9	0	
5840	0.3	0	
6205	0.2	0	
6570	0.4	0	
6935	0.1	0	
7300	0.000	0.000	
