# Time Global
# Global+Instigator_HIV|Ave
# Global+Instigator_HIV|Std
# Time	Ave	Std	
365	0.4	0	
730	0.3	0	
1095	0.4	0	
1460	0.4	0	
1825	1	0	
2190	0.9	0	
2555	0.5	0	
2920	0.6	0	
3285	0.8	0	
3650	0.5	0	
4015	0.3	0	
4380	0.4	0	
4745	0.3	0	
5110	0.4	0	
5475	0.6	0	
5840	0.2	0	
6205	0.1	0	
6570	0.2	0	
6935	0.4	0	
7300	0.3	0	
