# Time Churn
# Churn:drug_co_use+Deviation|Ave
# Churn:drug_co_use+Deviation|Std
# Time	Ave	Std	
365	-1.121	0.643	
730	-1.13	0.634	
1095	-1.148	0.63	
1460	-1.161	0.65	
1825	-1.164	0.632	
2190	-1.146	0.615	
2555	-1.159	0.622	
2920	-1.154	0.62	
3285	-1.177	0.588	
3650	-1.194	0.597	
4015	-1.183	0.633	
4380	-1.195	0.622	
4745	-1.2	0.635	
5110	-1.182	0.635	
5475	-1.172	0.631	
5840	-1.164	0.641	
6205	-1.167	0.653	
6570	-1.19	0.613	
6935	-1.191	0.622	
7300	-1.192	0.619	
